TITLE ="Advection equation"
VARIABLES = "X", "Y", "U"
ZONE T="U", F=FEPOINT, N=6561, E=12800, ET=TRIANGLE
0 0 3.33440077639385e-10
0.0125 0 1.68990951587651e-10
0.025 0 4.73762934518334e-11
0.0375 0 1.29872108784626e-11
0.05 0 3.15487643609262e-12
0.0625 0 -5.29856335727504e-14
0.075 0 -7.01884582620959e-13
0.0875 0 -9.54457067525796e-13
0.1 0 -7.62091350513307e-13
0.1125 0 8.40199183273905e-14
0.125 0 3.71492173634696e-12
0.1375 0 1.08251398644126e-11
0.15 0 3.30832400561102e-11
0.1625 0 6.65969189326486e-11
0.175 0 1.74743911443408e-10
0.1875 0 3.22840935013326e-10
0.2 0 7.70107578797239e-10
0.2125 0 1.3116253593505e-09
0.225 0 2.81982384693767e-09
0.2375 0 4.41427892549296e-09
0.25 0 8.58430377649495e-09
0.2625 0 1.23392504527505e-08
0.275 0 2.17771970424099e-08
0.2875 0 2.87337487797041e-08
0.3 0 4.61904704832137e-08
0.3125 0 5.68125316869688e-08
0.325 0 8.44076520976157e-08
0.3375 0 1.12471357530277e-07
0.35 0 1.76746970293228e-07
0.3625 0 4.25232800073191e-07
0.375 0 9.05403849828567e-07
0.3875 0 1.58875389757117e-06
0.4 0 9.69445470512143e-07
0.4125 0 4.98545407701841e-07
0.425 0 3.56428706290985e-07
0.4375 0 3.21526991302142e-07
0.45 0 3.5213436367297e-07
0.4625 0 3.37819440142779e-07
0.475 0 3.84162138948877e-07
0.4875 0 3.84174795120377e-07
0.5 0 3.95468774515371e-07
0.5125 0 3.30279552003822e-07
0.525 0 3.29471776536673e-07
0.5375 0 2.98519414667231e-07
0.55 0 3.29882258306988e-07
0.5625 0 3.10593813103683e-07
0.575 0 3.46573159660794e-07
0.5875 0 3.17666204946332e-07
0.6 0 3.33423428543084e-07
0.6125 0 2.98012641744534e-07
0.625 0 3.23693055113591e-07
0.6375 0 2.96300266829117e-07
0.65 0 3.23716170017429e-07
0.6625 0 2.96192222190476e-07
0.675 0 3.22433353449306e-07
0.6875 0 2.98535836891033e-07
0.7 0 3.39660015386701e-07
0.7125 0 3.8500429058966e-07
0.725 0 4.68677345117351e-07
0.7375 0 4.73109608971806e-07
0.75 0 4.89582836908188e-07
0.7625 0 4.93668246872108e-07
0.775 0 5.66104721327296e-07
0.7875 0 9.61605653833763e-07
0.8 0 1.71398506204723e-06
0.8125 0 3.14738512010355e-06
0.825 0 1.8040358342933e-06
0.8375 0 6.99966124544348e-07
0.85 0 2.02649665754049e-07
0.8625 0 1.00473420122567e-07
0.875 0 7.26511002372717e-08
0.8875 0 5.29650124064911e-08
0.9 0 4.44915953037549e-08
0.9125 0 3.04036908273559e-08
0.925 0 2.35541294835842e-08
0.9375 0 1.53665231079969e-08
0.95 0 1.1693463682593e-08
0.9625 0 7.96611649042319e-09
0.975 0 6.12490732717048e-09
0.9875 0 2.03827930345068e-09
1 0 8.81599264135749e-10
0 0.0125 2.353438776022e-10
0.0125 0.0125 1.33628058814314e-10
0.025 0.0125 4.14680739524275e-11
0.0375 0.0125 1.00772732713207e-11
0.05 0.0125 2.35364602753115e-12
0.0625 0.0125 -5.70464892891352e-13
0.075 0.0125 -1.12125263277755e-12
0.0875 0.0125 -1.18049251680889e-12
0.1 0.0125 -8.8492175716766e-13
0.1125 0.0125 -4.39875332650624e-13
0.125 0.0125 2.22701615544319e-12
0.1375 0.0125 6.54430036794971e-12
0.15 0.0125 1.97478610277089e-11
0.1625 0.0125 3.95996279284741e-11
0.175 0.0125 1.02292222924346e-10
0.1875 0.0125 1.94931090583349e-10
0.2 0.0125 4.55897782829219e-10
0.2125 0.0125 8.12540637472842e-10
0.225 0.0125 1.68869023278655e-09
0.2375 0.0125 2.78496505888264e-09
0.25 0.0125 5.17247025956344e-09
0.2625 0.0125 7.86782079612726e-09
0.275 0.0125 1.31776785068961e-08
0.2875 0.0125 1.84595162031628e-08
0.3 0.0125 2.84738750768887e-08
0.3125 0.0125 3.75305094897559e-08
0.325 0.0125 6.16195064151212e-08
0.3375 0.0125 9.55516644000468e-08
0.35 0.0125 2.45727744605589e-07
0.3625 0.0125 5.6617362386312e-07
0.375 0.0125 1.9211597636876e-06
0.3875 0.0125 2.17748417591539e-06
0.4 0.0125 1.24570544868958e-06
0.4125 0.0125 4.44651024990714e-07
0.425 0.0125 2.91853811284546e-07
0.4375 0.0125 2.5004366566416e-07
0.45 0.0125 2.62090000834677e-07
0.4625 0.0125 2.63938247077292e-07
0.475 0.0125 3.0085832491441e-07
0.4875 0.0125 3.27902768568269e-07
0.5 0.0125 3.14068387310874e-07
0.5125 0.0125 2.43279427541682e-07
0.525 0.0125 2.26695326973359e-07
0.5375 0.0125 2.14348041021751e-07
0.55 0.0125 2.2678546411584e-07
0.5625 0.0125 2.26537064519601e-07
0.575 0.0125 2.43647191345014e-07
0.5875 0.0125 2.33360959736673e-07
0.6 0.0125 2.27070371500599e-07
0.6125 0.0125 2.08693377581356e-07
0.625 0.0125 2.15402349925442e-07
0.6375 0.0125 2.08093539897724e-07
0.65 0.0125 2.1729931083468e-07
0.6625 0.0125 2.10452233408066e-07
0.675 0.0125 2.20584445794464e-07
0.6875 0.0125 2.1681025223619e-07
0.7 0.0125 2.58459658304773e-07
0.7125 0.0125 3.31103313046978e-07
0.725 0.0125 4.22188511294466e-07
0.7375 0.0125 4.28613237392429e-07
0.75 0.0125 4.40575080715883e-07
0.7625 0.0125 4.69858696717414e-07
0.775 0.0125 7.24645982632763e-07
0.7875 0.0125 1.30934540975573e-06
0.8 0.0125 4.11505280870788e-06
0.8125 0.0125 4.56788790017894e-06
0.825 0.0125 2.47987397565006e-06
0.8375 0.0125 7.07015697885721e-07
0.85 0.0125 2.36971299883873e-07
0.8625 0.0125 7.60382003731852e-08
0.875 0.0125 4.99989394217936e-08
0.8875 0.0125 3.58466871847352e-08
0.9 0.0125 2.9152911791953e-08
0.9125 0.0125 2.07594524236869e-08
0.925 0.0125 1.56224458930826e-08
0.9375 0.0125 1.03556929610896e-08
0.95 0.0125 7.61678423073643e-09
0.9625 0.0125 4.97616552262939e-09
0.975 0.0125 3.63923181786623e-09
0.9875 0.0125 1.5519822991369e-09
1 0.0125 8.29134806552213e-10
0 0.025 2.11058940819962e-10
0.0125 0.025 1.15067490350106e-10
0.025 0.025 2.77632058939864e-11
0.0375 0.025 8.16298081538677e-12
0.05 0.025 8.53649871576095e-13
0.0625 0.025 -1.10310781614623e-12
0.075 0.025 -1.57933430332168e-12
0.0875 0.025 -1.10234855274565e-12
0.1 0.025 -6.09751968152125e-13
0.1125 0.025 1.15377513559663e-13
0.125 0.025 1.03405762628098e-12
0.1375 0.025 3.15087301807036e-12
0.15 0.025 5.74114254393241e-12
0.1625 0.025 1.39902652530365e-11
0.175 0.025 2.65850239163669e-11
0.1875 0.025 6.89223302782328e-11
0.2 0.025 1.2961914348658e-10
0.2125 0.025 2.9697212053284e-10
0.225 0.025 5.1369639004459e-10
0.2375 0.025 1.03319657317617e-09
0.25 0.025 1.63583678908598e-09
0.2625 0.025 2.95398302552136e-09
0.275 0.025 4.33052010441184e-09
0.2875 0.025 7.50137701119784e-09
0.3 0.025 1.11633809152941e-08
0.3125 0.025 2.45187968486114e-08
0.325 0.025 5.03415534903331e-08
0.3375 0.025 1.84230146876408e-07
0.35 0.025 4.91221916252263e-07
0.3625 0.025 2.45331068687091e-06
0.375 0.025 4.75199021176315e-06
0.3875 0.025 4.11507940014912e-06
0.4 0.025 1.482933252798e-06
0.4125 0.025 5.14159968358387e-07
0.425 0.025 2.21955292886098e-07
0.4375 0.025 1.84947977363597e-07
0.45 0.025 1.77398161096665e-07
0.4625 0.025 1.9701716690054e-07
0.475 0.025 2.30800394084843e-07
0.4875 0.025 3.19399726698024e-07
0.5 0.025 2.54772525352972e-07
0.5125 0.025 1.63666301887199e-07
0.525 0.025 1.1903381086332e-07
0.5375 0.025 1.20279282397783e-07
0.55 0.025 1.19891333653635e-07
0.5625 0.025 1.33924298264099e-07
0.575 0.025 1.43527575221899e-07
0.5875 0.025 1.39956579494285e-07
0.6 0.025 1.11674474055272e-07
0.6125 0.025 1.0530008534165e-07
0.625 0.025 1.0013038081424e-07
0.6375 0.025 1.05199224638364e-07
0.65 0.025 1.04294020838701e-07
0.6625 0.025 1.13557109762445e-07
0.675 0.025 1.15494349982126e-07
0.6875 0.025 1.42539381883338e-07
0.7 0.025 1.89696409706e-07
0.7125 0.025 3.68323306917356e-07
0.725 0.025 4.1369522522374e-07
0.7375 0.025 4.02795789127896e-07
0.75 0.025 4.15679223972828e-07
0.7625 0.025 6.58274849684507e-07
0.775 0.025 1.30265898561201e-06
0.7875 0.025 5.75383328048487e-06
0.8 0.025 1.03987189885482e-05
0.8125 0.025 8.62526477795111e-06
0.825 0.025 3.07267575993301e-06
0.8375 0.025 9.76564463607982e-07
0.85 0.025 2.51835948325891e-07
0.8625 0.025 8.11258797160028e-08
0.875 0.025 2.56424244404689e-08
0.8875 0.025 1.66133818937091e-08
0.9 0.025 1.17039169196524e-08
0.9125 0.025 9.26644483917774e-09
0.925 0.025 6.40605699007504e-09
0.9375 0.025 4.6650347310403e-09
0.95 0.025 3.00374549813744e-09
0.9625 0.025 2.15273738264802e-09
0.975 0.025 1.36116061234323e-09
0.9875 0.025 8.99980080242005e-10
1 0.025 4.90206481693538e-10
0 0.0375 1.30264137248789e-10
0.0125 0.0375 7.56232345401696e-11
0.025 0.0375 2.24094345957653e-11
0.0375 0.0375 4.84725541268307e-12
0.05 0.0375 2.49907373872811e-13
0.0625 0.0375 -1.5634154923408e-12
0.075 0.0375 -1.45309747064517e-12
0.0875 0.0375 -6.42329970839612e-13
0.1 0.0375 4.33192379999214e-13
0.1125 0.0375 1.36557355376165e-12
0.125 0.0375 1.8292707319862e-12
0.1375 0.0375 2.03497309158068e-12
0.15 0.0375 1.97940330305405e-12
0.1625 0.0375 1.9871895242799e-12
0.175 0.0375 6.61690948822423e-12
0.1875 0.0375 1.44113863744827e-11
0.2 0.0375 4.17427703462141e-11
0.2125 0.0375 7.85739957361894e-11
0.225 0.0375 1.79488113195341e-10
0.2375 0.0375 2.99708955278179e-10
0.25 0.0375 6.1369167390766e-10
0.2625 0.0375 9.81455280134778e-10
0.275 0.0375 2.20466272823585e-09
0.2875 0.0375 4.03340644251309e-09
0.3 0.0375 1.31285705338853e-08
0.3125 0.0375 3.44548331392144e-08
0.325 0.0375 1.61979835322477e-07
0.3375 0.0375 4.79098970928698e-07
0.35 0.0375 2.52236641419598e-06
0.3625 0.0375 7.45828568230138e-06
0.375 0.0375 1.16355223457522e-05
0.3875 0.0375 6.76606822045332e-06
0.4 0.0375 2.18434937214031e-06
0.4125 0.0375 5.62576651213263e-07
0.425 0.0375 2.48272503340867e-07
0.4375 0.0375 1.66494161624596e-07
0.45 0.0375 1.69315428497312e-07
0.4625 0.0375 1.98748158111806e-07
0.475 0.0375 3.8946944312301e-07
0.4875 0.0375 4.94045170510071e-07
0.5 0.0375 3.42232051148667e-07
0.5125 0.0375 1.35521657047429e-07
0.525 0.0375 9.44023706750444e-08
0.5375 0.0375 8.54065606732371e-08
0.55 0.0375 9.17677665791432e-08
0.5625 0.0375 1.02659108948502e-07
0.575 0.0375 1.38002229640813e-07
0.5875 0.0375 1.17219842015379e-07
0.6 0.0375 8.15634504623083e-08
0.6125 0.0375 6.19216269655879e-08
0.625 0.0375 6.27461387305198e-08
0.6375 0.0375 6.25679343732907e-08
0.65 0.0375 7.13540544427904e-08
0.6625 0.0375 7.79280843814983e-08
0.675 0.0375 1.01403478851378e-07
0.6875 0.0375 1.49192130874947e-07
0.7 0.0375 4.12029209561361e-07
0.7125 0.0375 6.25642618362363e-07
0.725 0.0375 5.69782096726275e-07
0.7375 0.0375 4.40019514772572e-07
0.75 0.0375 6.46981105465321e-07
0.7625 0.0375 1.29423959944674e-06
0.775 0.0375 6.1451244942595e-06
0.7875 0.0375 1.72924942931379e-05
0.8 0.0375 2.43086052432811e-05
0.8125 0.0375 1.36117447513212e-05
0.825 0.0375 4.50590967270335e-06
0.8375 0.0375 1.14227582511617e-06
0.85 0.0375 3.60572147051277e-07
0.8625 0.0375 9.09166670613305e-08
0.875 0.0375 2.86146143009805e-08
0.8875 0.0375 8.70781023877672e-09
0.9 0.0375 5.42055015489609e-09
0.9125 0.0375 3.65502801351922e-09
0.925 0.0375 2.82788398767685e-09
0.9375 0.0375 1.87239539150144e-09
0.95 0.0375 1.33293997332125e-09
0.9625 0.0375 8.23880453081654e-10
0.975 0.0375 5.81014652054211e-10
0.9875 0.0375 3.47106093603916e-10
1 0.0375 2.95414938191751e-10
0 0.05 7.47894387336673e-11
0.0125 0.05 4.81050154405496e-11
0.025 0.05 1.38723284367904e-11
0.0375 0.05 3.72790174939538e-12
0.05 0.05 -4.40919110479854e-13
0.0625 0.05 -1.27625502208722e-12
0.075 0.05 -1.05190799848897e-12
0.0875 0.05 1.62771025082409e-13
0.1 0.05 1.57721953278505e-12
0.1125 0.05 2.42743713194118e-12
0.125 0.05 2.73148972757102e-12
0.1375 0.05 1.68215063941313e-12
0.15 0.05 1.55779624876814e-13
0.1625 0.05 -1.82630605887795e-12
0.175 0.05 -2.95805490146796e-12
0.1875 0.05 8.28987143047689e-14
0.2 0.05 4.84108248360097e-12
0.2125 0.05 2.31789916363309e-11
0.225 0.05 4.62324599551741e-11
0.2375 0.05 1.27331835116449e-10
0.25 0.05 2.67072309852042e-10
0.2625 0.05 9.10834286875857e-10
0.275 0.05 2.54942396656471e-09
0.2875 0.05 1.06340839295176e-08
0.3 0.05 2.9177412610356e-08
0.3125 0.05 1.53679013711954e-07
0.325 0.05 4.56545088442897e-07
0.3375 0.05 2.49218037749261e-06
0.35 0.05 7.30058816197923e-06
0.3625 0.05 2.43439210712255e-05
0.375 0.05 2.37542474911519e-05
0.3875 0.05 1.0765017651937e-05
0.4 0.05 2.60030686915973e-06
0.4125 0.05 8.12569886376106e-07
0.425 0.05 2.659762198104e-07
0.4375 0.05 1.85036196538237e-07
0.45 0.05 1.93204307365427e-07
0.4625 0.05 4.08863696074275e-07
0.475 0.05 8.56935019396435e-07
0.4875 0.05 9.96365744386341e-07
0.5 0.05 4.71467546111812e-07
0.5125 0.05 1.68112527588584e-07
0.525 0.05 8.75226306776118e-08
0.5375 0.05 8.21723052884615e-08
0.55 0.05 9.02098480098085e-08
0.5625 0.05 1.53137066172853e-07
0.575 0.05 2.09841325511693e-07
0.5875 0.05 1.65217712465308e-07
0.6 0.05 7.28642979329511e-08
0.6125 0.05 5.35839938243462e-08
0.625 0.05 5.04400792301836e-08
0.6375 0.05 5.75891548428546e-08
0.65 0.05 6.93991031833299e-08
0.6625 0.05 9.34186375636848e-08
0.675 0.05 1.3193411971107e-07
0.6875 0.05 4.20336070831784e-07
0.7 0.05 1.00896986679168e-06
0.7125 0.05 1.26106581993404e-06
0.725 0.05 7.85854333815963e-07
0.7375 0.05 7.73545664023807e-07
0.75 0.05 1.33527977337209e-06
0.7625 0.05 6.28951738876417e-06
0.775 0.05 1.90980446243288e-05
0.7875 0.05 5.25265169456559e-05
0.8 0.05 4.71044478131726e-05
0.8125 0.05 2.04417657023375e-05
0.825 0.05 5.34549358652743e-06
0.8375 0.05 1.68795930084496e-06
0.85 0.05 4.2573725894754e-07
0.8625 0.05 1.33100589069722e-07
0.875 0.05 3.30112230125409e-08
0.8875 0.05 1.02119984063432e-08
0.9 0.05 2.95783436421396e-09
0.9125 0.05 1.71874600621896e-09
0.925 0.05 1.09604141959245e-09
0.9375 0.05 8.18892903396902e-10
0.95 0.05 5.24406263682193e-10
0.9625 0.05 3.60769902767881e-10
0.975 0.05 2.17126696715563e-10
0.9875 0.05 1.49139073429993e-10
1 0.05 1.01719304276496e-10
0 0.0625 2.88218078640585e-11
0.0125 0.0625 2.04004260396876e-11
0.025 0.0625 9.4400935142114e-12
0.0375 0.0625 2.36198298767735e-12
0.05 0.0625 9.43969921779992e-15
0.0625 0.0625 -7.88474892219039e-13
0.075 0.0625 -1.52616456932794e-13
0.0875 0.0625 1.07375112901433e-12
0.1 0.0625 2.34043561446067e-12
0.1125 0.0625 3.08554357788981e-12
0.125 0.0625 2.40174474729371e-12
0.1375 0.0625 9.29603245390596e-13
0.15 0.0625 -1.66934909565811e-12
0.1625 0.0625 -4.26148785906962e-12
0.175 0.0625 -5.86112581448505e-12
0.1875 0.0625 -6.21935996879515e-12
0.2 0.0625 -3.30954183513153e-12
0.2125 0.0625 5.06438552445666e-12
0.225 0.0625 4.55700659515518e-11
0.2375 0.0625 1.19542995007916e-10
0.25 0.0625 5.78008102252652e-10
0.2625 0.0625 1.58454858815279e-09
0.275 0.0625 8.86409948378284e-09
0.2875 0.0625 2.89046675120987e-08
0.3 0.0625 1.50054711650454e-07
0.3125 0.0625 4.61151787270116e-07
0.325 0.0625 2.45300499105617e-06
0.3375 0.0625 7.6224612540596e-06
0.35 0.0625 3.60514793682688e-05
0.3625 0.0625 5.9020804940921e-05
0.375 0.0625 4.22540086596358e-05
0.3875 0.0625 1.31233949242271e-05
0.4 0.0625 3.92576498869361e-06
0.4125 0.0625 9.61723662634189e-07
0.425 0.0625 3.75490330950879e-07
0.4375 0.0625 2.39884553424612e-07
0.45 0.0625 4.15475888681123e-07
0.4625 0.0625 9.42330183747855e-07
0.475 0.0625 2.26340911085085e-06
0.4875 0.0625 1.88636154975751e-06
0.5 0.0625 7.57486322822852e-07
0.5125 0.0625 1.91363514893783e-07
0.525 0.0625 1.0311215664228e-07
0.5375 0.0625 9.21148753899612e-08
0.55 0.0625 1.55751082233861e-07
0.5625 0.0625 3.08000406692488e-07
0.575 0.0625 4.47300693897816e-07
0.5875 0.0625 2.53176635545724e-07
0.6 0.0625 9.56336043211628e-08
0.6125 0.0625 5.23705556282023e-08
0.625 0.0625 6.00545638433548e-08
0.6375 0.0625 8.181706655202e-08
0.65 0.0625 1.59593982142486e-07
0.6625 0.0625 1.69568333612271e-07
0.675 0.0625 4.36577199846559e-07
0.6875 0.0625 1.17170318439282e-06
0.7 0.0625 2.73595890827797e-06
0.7125 0.0625 2.29359170536741e-06
0.725 0.0625 1.44182133286116e-06
0.7375 0.0625 1.64473287032885e-06
0.75 0.0625 6.34809234427323e-06
0.7625 0.0625 1.9070840828666e-05
0.775 0.0625 8.47026652287954e-05
0.7875 0.0625 0.000120326917691876
0.8 0.0625 7.78100401865393e-05
0.8125 0.0625 2.43190075485205e-05
0.825 0.0625 7.78767521020051e-06
0.8375 0.0625 2.00643822610042e-06
0.85 0.0625 6.3293534928687e-07
0.8625 0.0625 1.58513843666856e-07
0.875 0.0625 4.91685477211654e-08
0.8875 0.0625 1.20367783834669e-08
0.9 0.0625 3.67221586155129e-09
0.9125 0.0625 1.0063279167485e-09
0.925 0.0625 5.3091561673853e-10
0.9375 0.0625 3.10189089783584e-10
0.95 0.0625 2.25721120744374e-10
0.9625 0.0625 1.37563931078909e-10
0.975 0.0625 9.24457417464247e-11
0.9875 0.0625 5.30144884083176e-11
1 0.0625 4.50096774694402e-11
0 0.075 1.04639687747664e-11
0.0125 0.075 8.64437037399061e-12
0.025 0.075 4.74816873891153e-12
0.0375 0.075 2.4618105464969e-12
0.05 0.075 8.25333628573748e-13
0.0625 0.075 5.2591176798578e-13
0.075 0.075 9.06281503672359e-13
0.0875 0.075 1.85933334476134e-12
0.1 0.075 2.82849433465389e-12
0.1125 0.075 2.59183860045359e-12
0.125 0.075 1.49079720622996e-12
0.1375 0.075 -1.09993394503911e-12
0.15 0.075 -3.87178621186213e-12
0.1625 0.075 -6.13485042847831e-12
0.175 0.075 -7.32784817757099e-12
0.1875 0.075 -5.5205647171166e-12
0.2 0.075 -4.28584319442545e-12
0.2125 0.075 2.20722100010125e-11
0.225 0.075 1.04375381052418e-10
0.2375 0.075 5.4065584383898e-10
0.25 0.075 1.72853588196211e-09
0.2625 0.075 8.82311579042796e-09
0.275 0.075 2.4441279869719e-08
0.2875 0.075 1.3879130447498e-07
0.3 0.075 4.31800670917905e-07
0.3125 0.075 2.30447000970806e-06
0.325 0.075 7.05313669149062e-06
0.3375 0.075 3.67217549195557e-05
0.35 0.075 9.76358327285626e-05
0.3625 0.075 0.000121330583223983
0.375 0.075 6.23498129373026e-05
0.3875 0.075 1.94548388781658e-05
0.4 0.075 4.67769742642219e-06
0.4125 0.075 1.47655942987596e-06
0.425 0.075 4.89354884259047e-07
0.4375 0.075 4.99490159120239e-07
0.45 0.075 9.24485024641939e-07
0.4625 0.075 3.35448016047604e-06
0.475 0.075 5.09225121152951e-06
0.4875 0.075 3.41729895849922e-06
0.5 0.075 9.39720645620668e-07
0.5125 0.075 2.9652561094494e-07
0.525 0.075 1.29698104223634e-07
0.5375 0.075 1.61599513540165e-07
0.55 0.075 3.04320125096687e-07
0.5625 0.075 8.33682091389107e-07
0.575 0.075 9.18895315310876e-07
0.5875 0.075 4.74029632407006e-07
0.6 0.075 1.14917148005357e-07
0.6125 0.075 8.22816912117939e-08
0.625 0.075 1.11943164247283e-07
0.6375 0.075 3.85835165452316e-07
0.65 0.075 4.20180105712488e-07
0.6625 0.075 5.95407757388224e-07
0.675 0.075 1.17984803674519e-06
0.6875 0.075 4.60530957299639e-06
0.7 0.075 5.98428022745639e-06
0.7125 0.075 4.07888651408544e-06
0.725 0.075 2.74380092906369e-06
0.7375 0.075 6.68595254506751e-06
0.75 0.075 1.83516058917972e-05
0.7625 0.075 9.6971095712333e-05
0.775 0.075 0.000219609665443888
0.7875 0.075 0.000227563652662629
0.8 0.075 0.000105000216110577
0.8125 0.075 3.45138085963188e-05
0.825 0.075 9.14665167834771e-06
0.8375 0.075 2.93850739296179e-06
0.85 0.075 7.53979006914782e-07
0.8625 0.075 2.37056849347671e-07
0.875 0.075 5.89920166200856e-08
0.8875 0.075 1.81799229755986e-08
0.9 0.075 4.40352587762397e-09
0.9125 0.075 1.32843633356762e-09
0.925 0.075 3.44279664264637e-10
0.9375 0.075 1.60073261509587e-10
0.95 0.075 8.33823370893201e-11
0.9625 0.075 5.78808089153997e-11
0.975 0.075 3.35317597226347e-11
0.9875 0.075 2.15040799779099e-11
1 0.075 1.37690612156771e-11
0 0.0875 2.85501715595644e-12
0.0125 0.0875 2.09599496620639e-12
0.025 0.0875 2.31706778645586e-12
0.0375 0.0875 2.45880928930514e-12
0.05 0.0875 2.19714922406356e-12
0.0625 0.0875 2.00937427472042e-12
0.075 0.0875 1.9276627666127e-12
0.0875 0.0875 2.25212265340125e-12
0.1 0.0875 1.87834807253332e-12
0.1125 0.0875 1.235147218203e-12
0.125 0.0875 -1.21793216564831e-12
0.1375 0.0875 -3.90551859089059e-12
0.15 0.0875 -6.66474637644073e-12
0.1625 0.0875 -7.8011131986638e-12
0.175 0.0875 -6.25710004061975e-12
0.1875 0.0875 1.74092865918163e-12
0.2 0.0875 3.17023197906679e-11
0.2125 0.0875 8.83530738150686e-11
0.225 0.0875 5.17584973994107e-10
0.2375 0.0875 1.43233605171803e-09
0.25 0.0875 8.11309036410322e-09
0.2625 0.0875 2.7324522796851e-08
0.275 0.0875 1.36711054619951e-07
0.2875 0.0875 4.07667547818313e-07
0.3 0.0875 2.12900939521012e-06
0.3125 0.0875 6.52201504942078e-06
0.325 0.0875 3.36456969740605e-05
0.3375 0.0875 0.000104328319808655
0.35 0.0875 0.00025310088700926
0.3625 0.0875 0.000219317709470152
0.375 0.0875 9.21433906244313e-05
0.3875 0.0875 2.28661336814121e-05
0.4 0.0875 7.03290320765256e-06
0.4125 0.0875 1.85078011044141e-06
0.425 0.0875 9.42435744749123e-07
0.4375 0.0875 1.04079795728078e-06
0.45 0.0875 3.35135112943153e-06
0.4625 0.0875 8.24422799107026e-06
0.475 0.0875 1.020153547056e-05
0.4875 0.0875 5.16771907669497e-06
0.5 0.0875 1.53536227687839e-06
0.5125 0.0875 3.85008276628358e-07
0.525 0.0875 2.38292861153399e-07
0.5375 0.0875 3.05524602451524e-07
0.55 0.0875 9.48871993849567e-07
0.5625 0.0875 1.91296951233961e-06
0.575 0.0875 1.83448253200762e-06
0.5875 0.0875 6.93927427603949e-07
0.6 0.0875 2.19583974344897e-07
0.6125 0.0875 1.82982423140678e-07
0.625 0.0875 7.15526890245452e-07
0.6375 0.0875 1.18380198512113e-06
0.65 0.0875 1.32882879645219e-06
0.6625 0.0875 1.58536375925424e-06
0.675 0.0875 5.80033411069168e-06
0.6875 0.0875 1.16114721109159e-05
0.7 0.0875 1.12223894130487e-05
0.7125 0.0875 6.25592721064462e-06
0.725 0.0875 8.22675932793815e-06
0.7375 0.0875 1.84460910891843e-05
0.75 0.0875 8.99678808646162e-05
0.7625 0.0875 0.000277477170860255
0.775 0.0875 0.00050533997845944
0.7875 0.0875 0.00037133878476358
0.8 0.0875 0.000145671275352539
0.8125 0.0875 3.98798400702853e-05
0.825 0.0875 1.3077977565939e-05
0.8375 0.0875 3.45651764081838e-06
0.85 0.0875 1.10787022272073e-06
0.8625 0.0875 2.83155875090306e-07
0.875 0.0875 8.87182961599431e-08
0.8875 0.0875 2.1954318550131e-08
0.9 0.0875 6.7298758769322e-09
0.9125 0.0875 1.6156164047453e-09
0.925 0.0875 4.82827113779292e-10
0.9375 0.0875 1.1840150757925e-10
0.95 0.0875 4.74098354854754e-11
0.9625 0.0875 2.04022919864152e-11
0.975 0.0875 1.31464480057025e-11
0.9875 0.0875 6.64133680422891e-12
1 0.0875 5.21848919217075e-12
0 0.1 8.36695075816484e-14
0.0125 0.1 2.45832919984223e-13
0.025 0.1 9.7405301486923e-13
0.0375 0.1 2.47010385138832e-12
0.05 0.1 3.24543781050957e-12
0.0625 0.1 2.85287854316221e-12
0.075 0.1 2.21535862098963e-12
0.0875 0.1 8.60366523551656e-13
0.1 0.1 -4.7295008770022e-13
0.1125 0.1 -2.64156560110111e-12
0.125 0.1 -5.36640716113135e-12
0.1375 0.1 -8.02179462721368e-12
0.15 0.1 -1.01783244161223e-11
0.1625 0.1 -9.7764547200257e-12
0.175 0.1 -6.80452043171495e-12
0.1875 0.1 1.34315365121837e-11
0.2 0.1 1.01933213163176e-10
0.2125 0.1 5.03958442707159e-10
0.225 0.1 1.72590003412551e-09
0.2375 0.1 8.16021527404463e-09
0.25 0.1 2.22170374423887e-08
0.2625 0.1 1.20705423923634e-07
0.275 0.1 3.85928754469198e-07
0.2875 0.1 1.9379623132801e-06
0.3 0.1 5.99150333083641e-06
0.3125 0.1 2.98692853883371e-05
0.325 0.1 9.16623137118674e-05
0.3375 0.1 0.000374237709056518
0.35 0.1 0.000542002970488318
0.3625 0.1 0.000352389348489526
0.375 0.1 0.000107855290203139
0.3875 0.1 3.33675112838496e-05
0.4 0.1 8.44892385792028e-06
0.4125 0.1 3.08939478538863e-06
0.425 0.1 1.70211728053819e-06
0.4375 0.1 3.17105321529934e-06
0.45 0.1 8.01986624563167e-06
0.4625 0.1 1.94343383049852e-05
0.475 0.1 1.85361806728034e-05
0.4875 0.1 8.41185702840493e-06
0.5 0.1 1.96249423926349e-06
0.5125 0.1 7.15341391039772e-07
0.525 0.1 4.49421796905573e-07
0.5375 0.1 8.80583079932693e-07
0.55 0.1 2.14117647067624e-06
0.5625 0.1 4.2770040283756e-06
0.575 0.1 3.38054148946563e-06
0.5875 0.1 1.35606804541725e-06
0.6 0.1 4.36361171121426e-07
0.6125 0.1 1.00410267480557e-06
0.625 0.1 2.34447450062767e-06
0.6375 0.1 3.45043081305956e-06
0.65 0.1 3.01195015502595e-06
0.6625 0.1 6.32744333032083e-06
0.675 0.1 1.60137244017908e-05
0.6875 0.1 2.52906163757739e-05
0.7 0.1 1.81949099599575e-05
0.7125 0.1 1.35450482354188e-05
0.725 0.1 1.98805540558941e-05
0.7375 0.1 8.13476022831171e-05
0.75 0.1 0.000238974920701335
0.7625 0.1 0.000833245244644017
0.775 0.1 0.000986406570144527
0.7875 0.1 0.000545440414623225
0.8 0.1 0.000165954850890657
0.8125 0.1 5.55433309116469e-05
0.825 0.1 1.51442252584741e-05
0.8375 0.1 4.95910473632637e-06
0.85 0.1 1.3059771366885e-06
0.8625 0.1 4.17500123195884e-07
0.875 0.1 1.06271152270884e-07
0.8875 0.1 3.31927874402813e-08
0.9 0.1 8.17361974430767e-09
0.9125 0.1 2.4945695899017e-09
0.925 0.1 5.93988004653322e-10
0.9375 0.1 1.75764434156154e-10
0.95 0.1 4.06886755261219e-11
0.9625 0.1 1.34109067866261e-11
0.975 0.1 3.85020808852122e-12
0.9875 0.1 1.73340928611384e-12
1 0.1 4.58383229787003e-13
0 0.1125 -1.04175149032321e-12
0.0125 0.1125 -6.0973029987155e-13
0.025 0.1125 8.78348464627527e-13
0.0375 0.1125 2.57111488506793e-12
0.05 0.1125 3.20189912900444e-12
0.0625 0.1125 2.70791007122049e-12
0.075 0.1125 7.13910585737718e-13
0.0875 0.1125 -1.72671247219284e-12
0.1 0.1125 -4.24181804834229e-12
0.1125 0.1125 -6.98513746256071e-12
0.125 0.1125 -9.21969215789547e-12
0.1375 0.1125 -1.17580116867468e-11
0.15 0.1125 -1.16257007187886e-11
0.1625 0.1125 -1.13073255228221e-11
0.175 0.1125 4.7710400953558e-12
0.1875 0.1125 2.23619490612204e-11
0.2 0.1125 3.04933462692476e-10
0.2125 0.1125 1.10871242549352e-09
0.225 0.1125 6.43113142079274e-09
0.2375 0.1125 2.36202905711567e-08
0.25 0.1125 1.10661809310042e-07
0.2625 0.1125 3.30382314885161e-07
0.275 0.1125 1.65965714278426e-06
0.2875 0.1125 5.12676975890612e-06
0.3 0.1125 2.5315889966804e-05
0.3125 0.1125 7.85008106324625e-05
0.325 0.1125 0.000377560593116033
0.3375 0.1125 0.000894544845542292
0.35 0.1125 0.000979898883122585
0.3625 0.1125 0.000479221336478295
0.375 0.1125 0.000153410927536061
0.3875 0.1125 3.91221645482817e-05
0.4 0.1125 1.2939955811757e-05
0.4125 0.1125 4.28921906225636e-06
0.425 0.1125 3.89516481795418e-06
0.4375 0.1125 6.8783542002042e-06
0.45 0.1125 2.34014913974512e-05
0.4625 0.1125 4.04074860566507e-05
0.475 0.1125 3.10786582607409e-05
0.4875 0.1125 1.04346560961465e-05
0.5 0.1125 3.01655479918509e-06
0.5125 0.1125 1.02783559434667e-06
0.525 0.1125 9.43025018557376e-07
0.5375 0.1125 1.75856972172427e-06
0.55 0.1125 5.54939875123789e-06
0.5625 0.1125 8.94008782310182e-06
0.575 0.1125 6.47645726162731e-06
0.5875 0.1125 2.05957394659603e-06
0.6 0.1125 1.58334526106223e-06
0.6125 0.1125 3.09603677441439e-06
0.625 0.1125 7.03508567504503e-06
0.6375 0.1125 7.25611490920233e-06
0.65 0.1125 8.72740861903397e-06
0.6625 0.1125 1.68227661048587e-05
0.675 0.1125 4.40343761122779e-05
0.6875 0.1125 4.69720053327302e-05
0.7 0.1125 3.10178695334092e-05
0.7125 0.1125 2.74019774661319e-05
0.725 0.1125 7.66526293889032e-05
0.7375 0.1125 0.00022261729190156
0.75 0.1125 0.00101380210354885
0.7625 0.1125 0.00187595910702248
0.775 0.1125 0.00157965404200743
0.7875 0.1125 0.000659932704538948
0.8 0.1125 0.000225130255745152
0.8125 0.1125 6.33078296680687e-05
0.825 0.1125 2.11948336643441e-05
0.8375 0.1125 5.75640088291402e-06
0.85 0.1125 1.88039957211918e-06
0.8625 0.1125 4.9327809369946e-07
0.875 0.1125 1.57283585543993e-07
0.8875 0.1125 3.98767806878899e-08
0.9 0.1125 1.24202571290319e-08
0.9125 0.1125 3.04509754863376e-09
0.925 0.1125 9.25834994949446e-10
0.9375 0.1125 2.18621189061496e-10
0.95 0.1125 6.37992965884726e-11
0.9625 0.1125 1.35902859937521e-11
0.975 0.1125 3.11181230787329e-12
0.9875 0.1125 -4.54018701160883e-13
1 0.1125 -8.32696340778793e-13
0 0.125 -1.57929256283051e-12
0.0125 0.125 -7.54366985316207e-13
0.025 0.125 9.22361061750034e-13
0.0375 0.125 2.28546606612203e-12
0.05 0.125 2.58492255088366e-12
0.0625 0.125 1.14369824108278e-12
0.075 0.125 -1.45830407458852e-12
0.0875 0.125 -4.27385677363771e-12
0.1 0.125 -7.30809079470388e-12
0.1125 0.125 -9.03086578429553e-12
0.125 0.125 -1.13218941380302e-11
0.1375 0.125 -9.50487332475615e-12
0.15 0.125 -6.06648710768717e-12
0.1625 0.125 2.58322107792554e-11
0.175 0.125 7.22433787592648e-11
0.1875 0.125 4.45641593114653e-10
0.2 0.125 9.66122742432509e-10
0.2125 0.125 5.6911740283577e-09
0.225 0.125 1.48951371461976e-08
0.2375 0.125 8.76417842143182e-08
0.25 0.125 2.86972057805494e-07
0.2625 0.125 1.41428013549846e-06
0.275 0.125 4.37170700353738e-06
0.2875 0.125 2.10842494660285e-05
0.3 0.125 6.45980588313536e-05
0.3125 0.125 0.000313176266347855
0.325 0.125 0.000968070246971216
0.3375 0.125 0.00195075921814653
0.35 0.125 0.00160949571231161
0.3625 0.125 0.000672281985322692
0.375 0.125 0.000176515097929433
0.3875 0.125 5.68977520287739e-05
0.4 0.125 1.64326221211269e-05
0.4125 0.125 8.07845364819682e-06
0.425 0.125 7.62414676995822e-06
0.4375 0.125 1.9552244663703e-05
0.45 0.125 5.00654816314198e-05
0.4625 0.125 7.4647663541628e-05
0.475 0.125 4.67835902039123e-05
0.4875 0.125 1.49832288540004e-05
0.5 0.125 3.3474131634695e-06
0.5125 0.125 1.7601305837317e-06
0.525 0.125 1.68665064772563e-06
0.5375 0.125 4.92457890515931e-06
0.55 0.125 1.18303567338594e-05
0.5625 0.125 1.82067813386067e-05
0.575 0.125 1.09465528574364e-05
0.5875 0.125 4.70265752216552e-06
0.6 0.125 3.71681666360792e-06
0.6125 0.125 9.92204214996865e-06
0.625 0.125 1.45950471499547e-05
0.6375 0.125 1.52654990514315e-05
0.65 0.125 2.0023967460489e-05
0.6625 0.125 6.03071996118919e-05
0.675 0.125 9.34112422436395e-05
0.6875 0.125 7.60014691946957e-05
0.7 0.125 4.88236246790858e-05
0.7125 0.125 8.02214851440226e-05
0.725 0.125 0.00019122286107274
0.7375 0.125 0.000904132541184807
0.75 0.125 0.00248567740532561
0.7625 0.125 0.00351505512923046
0.775 0.125 0.00227594025484088
0.7875 0.125 0.000872011557642939
0.8 0.125 0.000252872976804472
0.8125 0.125 8.65122298661857e-05
0.825 0.125 2.42282911440471e-05
0.8375 0.125 8.09176321381877e-06
0.85 0.125 2.18862769670745e-06
0.8625 0.125 7.13105577279674e-07
0.875 0.125 1.86326560525094e-07
0.8875 0.125 5.92633849772538e-08
0.9 0.125 1.49675288534515e-08
0.9125 0.125 4.65025669096198e-09
0.925 0.125 1.13554305459291e-09
0.9375 0.125 3.44057025434804e-10
0.95 0.125 8.04667561481008e-11
0.9625 0.125 2.28328269475127e-11
0.975 0.125 4.0165128895581e-12
0.9875 0.125 -1.65638492662421e-13
1 0.125 -1.37108210105237e-12
0 0.1375 -1.53906456344462e-12
0.0125 0.1375 -8.54773225237785e-13
0.025 0.1375 6.74582847855673e-13
0.0375 0.1375 1.88411412696842e-12
0.05 0.1375 1.38781575290515e-12
0.0625 0.1375 -3.47345394355198e-13
0.075 0.1375 -2.77064837590072e-12
0.0875 0.1375 -5.40451085014017e-12
0.1 0.1375 -6.61007155720079e-12
0.1125 0.1375 -7.52055045840116e-12
0.125 0.1375 -4.34480042810644e-12
0.1375 0.1375 3.02486749299534e-12
0.15 0.1375 3.78667672362169e-11
0.1625 0.1375 1.36479752876022e-10
0.175 0.1375 5.27909121135355e-10
0.1875 0.1375 1.73255985332135e-09
0.2 0.1375 6.7340889997866e-09
0.2125 0.1375 1.99051980263577e-08